<?xml version="1.0" encoding="UTF-8"?>

<!-- generated on 2021-06-18 23:10:31 by Eclipse SUMO GUI Version 1.9.2
<configuration xmlns:xsi="http://www.w3.org/2001/XMLSchema-instance" xsi:noNamespaceSchemaLocation="http://sumo.dlr.de/xsd/sumoConfiguration.xsd">

    <input>
        <net-file value="C:\Users\Administrador\Desktop\Thesis%20Triangle%20Ibarra\IbarraTriangleMap.net.xml"/>
        <route-files value="C:\Users\Administrador\Desktop\Thesis%20Triangle%20Ibarra\RoutesIbarraTriangle.rou.xml"/>
    </input>

    <output>
        <output-prefix value="TIME"/>
        <netstate-dump value="C:\Users\Administrador\Desktop\Thesis%20Triangle%20Ibarra\%25sDumpNet1.xml"/>
        <emission-output value="C:\Users\Administrador\Desktop\Thesis%20Triangle%20Ibarra\Emissions.xml"/>
        <fcd-output value="C:\Users\Administrador\Desktop\Thesis%20Triangle%20Ibarra\FcdOutput.xml"/>
        <fcd-output.acceleration value="true"/>
        <amitran-output value="C:\Users\Administrador\Desktop\Thesis%20Triangle%20Ibarra\VehTrajectories.xml"/>
        <summary-output value="C:\Users\Administrador\Desktop\Thesis%20Triangle%20Ibarra\Summary.xml"/>
        <tripinfo-output value="C:\Users\Administrador\Desktop\Thesis%20Triangle%20Ibarra\TripInfo.xml"/>
        <vehroute-output value="C:\Users\Administrador\Desktop\Thesis%20Triangle%20Ibarra\VehRoute.xml"/>
        <link-output value="C:\Users\Administrador\Desktop\Thesis%20Triangle%20Ibarra\Links.xml"/>
        <stop-output value="C:\Users\Administrador\Desktop\Thesis%20Triangle%20Ibarra\StopTimes.xml"/>
        <statistic-output value="C:\Users\Administrador\Desktop\Thesis%20Triangle%20Ibarra\Statistics.xml"/>
    </output>

    <time>
        <begin value="0"/>
    </time>

    <report>
        <verbose value="true"/>
        <xml-validation value="never"/>
        <xml-validation.routes value="never"/>
        <duration-log.disable value="true"/>
        <duration-log.statistics value="true"/>
        <no-step-log value="true"/>
    </report>

    <emissions>
        <device.emissions.probability value="1"/>
    </emissions>

</configuration>
-->

<tripinfos xmlns:xsi="http://www.w3.org/2001/XMLSchema-instance" xsi:noNamespaceSchemaLocation="http://sumo.dlr.de/xsd/tripinfo_file.xsd">
    <tripinfo id="a28b1a.0" depart="0.00" departLane="b4_0" departPos="0.20" departSpeed="0.00" departDelay="0.00" arrival="38.00" arrivalLane="e4_1" arrivalPos="108.49" arrivalSpeed="12.43" duration="38.00" routeLength="419.77" waitingTime="0.00" waitingCount="0" stopTime="0.00" timeLoss="6.16" rerouteNo="0" devices="vehroute_a28b1a.0 tripinfo_a28b1a.0 emissions_a28b1a.0 fcd_a28b1a.0" vType="Car" speedFactor="0.90" vaporized="">
        <emissions CO_abs="2195.524912" CO2_abs="139934.196005" HC_abs="13.324519" PMx_abs="2.685088" NOx_abs="58.805167" fuel_abs="60.151415" electricity_abs="0"/>
    </tripinfo>
    <tripinfo id="a28e1a.0" depart="2.00" departLane="b4_0" departPos="0.20" departSpeed="0.00" departDelay="2.00" arrival="40.00" arrivalLane="e4_1" arrivalPos="108.49" arrivalSpeed="11.74" duration="38.00" routeLength="419.77" waitingTime="0.00" waitingCount="0" stopTime="0.00" timeLoss="7.94" rerouteNo="0" devices="vehroute_a28e1a.0 tripinfo_a28e1a.0 emissions_a28e1a.0 fcd_a28e1a.0" vType="Taxi" speedFactor="0.97" vaporized="">
        <emissions CO_abs="2289.624162" CO2_abs="145408.279991" HC_abs="13.896736" PMx_abs="2.860864" NOx_abs="61.550554" fuel_abs="62.504377" electricity_abs="0"/>
    </tripinfo>
    <tripinfo id="a37b1a.0" depart="0.00" departLane="f7_0" departPos="5.10" departSpeed="0.00" departDelay="0.00" arrival="40.00" arrivalLane="f13_0" arrivalPos="31.58" arrivalSpeed="10.17" duration="40.00" routeLength="367.23" waitingTime="0.00" waitingCount="0" stopTime="0.00" timeLoss="4.79" rerouteNo="0" devices="vehroute_a37b1a.0 tripinfo_a37b1a.0 emissions_a37b1a.0 fcd_a37b1a.0" vType="Car" speedFactor="0.75" vaporized="">
        <emissions CO_abs="1810.054427" CO2_abs="108685.118096" HC_abs="10.768381" PMx_abs="1.819603" NOx_abs="44.179688" fuel_abs="46.719315" electricity_abs="0"/>
    </tripinfo>
    <tripinfo id="a28b1c.0" depart="0.00" departLane="b13b_0" departPos="5.10" departSpeed="0.00" departDelay="0.00" arrival="49.00" arrivalLane="e2a_0" arrivalPos="40.79" arrivalSpeed="11.77" duration="49.00" routeLength="606.14" waitingTime="0.00" waitingCount="0" stopTime="0.00" timeLoss="6.82" rerouteNo="0" devices="vehroute_a28b1c.0 tripinfo_a28b1c.0 emissions_a28b1c.0 fcd_a28b1c.0" vType="Car" speedFactor="1.01" vaporized="">
        <emissions CO_abs="2374.890080" CO2_abs="177684.016182" HC_abs="15.004626" PMx_abs="3.201641" NOx_abs="72.605426" fuel_abs="76.378400" electricity_abs="0"/>
    </tripinfo>
    <tripinfo id="a23b1a.0" depart="0.00" departLane="d3_0" departPos="5.10" departSpeed="0.00" departDelay="0.00" arrival="54.00" arrivalLane="g3_0" arrivalPos="0.20" arrivalSpeed="8.84" duration="54.00" routeLength="420.40" waitingTime="0.00" waitingCount="0" stopTime="0.00" timeLoss="8.04" rerouteNo="0" devices="vehroute_a23b1a.0 tripinfo_a23b1a.0 emissions_a23b1a.0 fcd_a23b1a.0" vType="Car" speedFactor="0.67" vaporized="">
        <emissions CO_abs="2646.948040" CO2_abs="138607.367748" HC_abs="15.289911" PMx_abs="2.477947" NOx_abs="57.676955" fuel_abs="59.581690" electricity_abs="0"/>
    </tripinfo>
    <tripinfo id="a23e1c.0" depart="1.00" departLane="d3_0" departPos="5.10" departSpeed="0.00" departDelay="1.00" arrival="56.00" arrivalLane="g3_0" arrivalPos="0.20" arrivalSpeed="10.02" duration="55.00" routeLength="420.40" waitingTime="1.00" waitingCount="1" stopTime="0.00" timeLoss="20.04" rerouteNo="0" devices="vehroute_a23e1c.0 tripinfo_a23e1c.0 emissions_a23e1c.0 fcd_a23e1c.0" vType="Taxi" speedFactor="0.88" vaporized="">
        <emissions CO_abs="3422.268549" CO2_abs="178580.320258" HC_abs="19.787872" PMx_abs="3.367363" NOx_abs="75.396744" fuel_abs="76.764190" electricity_abs="0"/>
    </tripinfo>
    <tripinfo id="a33b1a.0" depart="9.00" departLane="d3_0" departPos="5.10" departSpeed="0.00" departDelay="9.00" arrival="68.00" arrivalLane="e2a_0" arrivalPos="40.79" arrivalSpeed="13.90" duration="59.00" routeLength="475.89" waitingTime="3.00" waitingCount="3" stopTime="0.00" timeLoss="26.42" rerouteNo="0" devices="vehroute_a33b1a.0 tripinfo_a33b1a.0 emissions_a33b1a.0 fcd_a33b1a.0" vType="Car" speedFactor="1.06" vaporized="">
        <emissions CO_abs="3941.737527" CO2_abs="207185.744729" HC_abs="22.871121" PMx_abs="4.108569" NOx_abs="88.477972" fuel_abs="89.060160" electricity_abs="0"/>
    </tripinfo>
    <tripinfo id="18g1c.0" depart="7.00" departLane="c5_0" departPos="8.10" departSpeed="0.00" departDelay="7.00" arrival="72.00" arrivalLane="c12a_0" arrivalPos="89.74" arrivalSpeed="15.01" duration="65.00" routeLength="695.34" waitingTime="10.00" waitingCount="1" stopTime="0.00" timeLoss="22.86" rerouteNo="0" devices="vehroute_18g1c.0 tripinfo_18g1c.0 emissions_18g1c.0 fcd_18g1c.0" vType="Truck" speedFactor="1.22" vaporized="">
        <emissions CO_abs="2295.596476" CO2_abs="1883562.836512" HC_abs="0" PMx_abs="261.380285" NOx_abs="15183.759580" fuel_abs="798.555496" electricity_abs="0"/>
    </tripinfo>
    <tripinfo id="a28g1.0" depart="2.00" departLane="b13b_0" departPos="8.10" departSpeed="0.00" departDelay="2.00" arrival="81.00" arrivalLane="e2a_0" arrivalPos="40.79" arrivalSpeed="10.50" duration="79.00" routeLength="603.14" waitingTime="20.00" waitingCount="1" stopTime="0.00" timeLoss="30.14" rerouteNo="0" devices="vehroute_a28g1.0 tripinfo_a28g1.0 emissions_a28g1.0 fcd_a28g1.0" vType="Truck" speedFactor="0.86" vaporized="">
        <emissions CO_abs="1822.902896" CO2_abs="1380203.620302" HC_abs="0" PMx_abs="217.354586" NOx_abs="11619.385300" fuel_abs="585.145714" electricity_abs="0"/>
    </tripinfo>
    <tripinfo id="58b1a.0" depart="22.00" departLane="d3_0" departPos="5.10" departSpeed="0.00" departDelay="22.00" arrival="81.00" arrivalLane="j7_0" arrivalPos="1.40" arrivalSpeed="11.13" duration="59.00" routeLength="609.39" waitingTime="0.00" waitingCount="0" stopTime="0.00" timeLoss="12.68" rerouteNo="0" devices="vehroute_58b1a.0 tripinfo_58b1a.0 emissions_58b1a.0 fcd_58b1a.0" vType="Car" speedFactor="0.91" vaporized="">
        <emissions CO_abs="3177.656065" CO2_abs="198096.406198" HC_abs="19.164180" PMx_abs="3.698663" NOx_abs="82.154185" fuel_abs="85.152993" electricity_abs="0"/>
    </tripinfo>
    <tripinfo id="a37e1b.0" depart="2.00" departLane="f4_0" departPos="5.10" departSpeed="0.00" departDelay="2.00" arrival="82.00" arrivalLane="f15_1" arrivalPos="54.88" arrivalSpeed="13.02" duration="80.00" routeLength="876.34" waitingTime="4.00" waitingCount="1" stopTime="0.00" timeLoss="17.39" rerouteNo="0" devices="vehroute_a37e1b.0 tripinfo_a37e1b.0 emissions_a37e1b.0 fcd_a37e1b.0" vType="Taxi" speedFactor="1.01" vaporized="">
        <emissions CO_abs="3369.882444" CO2_abs="237382.859235" HC_abs="20.955651" PMx_abs="4.374112" NOx_abs="97.980323" fuel_abs="102.040243" electricity_abs="0"/>
    </tripinfo>
    <tripinfo id="a23b1a.1" depart="30.00" departLane="d3_0" departPos="5.10" departSpeed="0.00" departDelay="0.00" arrival="82.00" arrivalLane="g3_0" arrivalPos="0.20" arrivalSpeed="11.70" duration="52.00" routeLength="420.40" waitingTime="0.00" waitingCount="0" stopTime="0.00" timeLoss="17.61" rerouteNo="0" devices="vehroute_a23b1a.1 tripinfo_a23b1a.1 emissions_a23b1a.1 fcd_a23b1a.1" vType="Car" speedFactor="0.90" vaporized="">
        <emissions CO_abs="3191.677655" CO2_abs="169709.763602" HC_abs="18.544081" PMx_abs="3.266954" NOx_abs="72.063451" fuel_abs="72.950957" electricity_abs="0"/>
    </tripinfo>
    <tripinfo id="a37d1a.0" depart="0.00" departLane="f4_0" departPos="2.60" departSpeed="0.00" departDelay="0.00" arrival="85.00" arrivalLane="f15_0" arrivalPos="54.88" arrivalSpeed="13.57" duration="85.00" routeLength="878.84" waitingTime="5.00" waitingCount="1" stopTime="0.00" timeLoss="19.52" rerouteNo="0" devices="vehroute_a37d1a.0 tripinfo_a37d1a.0 emissions_a37d1a.0 fcd_a37d1a.0" vType="Moto" speedFactor="0.98" vaporized="">
        <emissions CO_abs="7282.067284" CO2_abs="241698.944300" HC_abs="34.299078" PMx_abs="11.983647" NOx_abs="52.568657" fuel_abs="103.908083" electricity_abs="0"/>
    </tripinfo>
    <tripinfo id="a33b1a.1" depart="27.00" departLane="d3_0" departPos="5.10" departSpeed="0.00" departDelay="0.86" arrival="85.00" arrivalLane="e2a_0" arrivalPos="40.79" arrivalSpeed="15.02" duration="58.00" routeLength="475.89" waitingTime="1.00" waitingCount="1" stopTime="0.00" timeLoss="26.84" rerouteNo="0" devices="vehroute_a33b1a.1 tripinfo_a33b1a.1 emissions_a33b1a.1 fcd_a33b1a.1" vType="Car" speedFactor="1.14" vaporized="">
        <emissions CO_abs="3849.963621" CO2_abs="201183.078077" HC_abs="22.300066" PMx_abs="4.069155" NOx_abs="86.399376" fuel_abs="86.479770" electricity_abs="0"/>
    </tripinfo>
    <tripinfo id="15b1a.0" depart="0.00" departLane="a2_0" departPos="5.10" departSpeed="0.00" departDelay="0.00" arrival="90.00" arrivalLane="c12a_0" arrivalPos="89.74" arrivalSpeed="12.26" duration="90.00" routeLength="569.77" waitingTime="30.00" waitingCount="1" stopTime="0.00" timeLoss="46.28" rerouteNo="0" devices="vehroute_15b1a.0 tripinfo_15b1a.0 emissions_15b1a.0 fcd_15b1a.0" vType="Car" speedFactor="0.98" vaporized="">
        <emissions CO_abs="7117.923371" CO2_abs="269990.182089" HC_abs="38.811583" PMx_abs="5.546563" NOx_abs="115.916342" fuel_abs="116.058528" electricity_abs="0"/>
    </tripinfo>
    <tripinfo id="58b1a.2" depart="28.00" departLane="d3_0" departPos="5.10" departSpeed="0.00" departDelay="0.40" arrival="90.00" arrivalLane="j7_1" arrivalPos="1.40" arrivalSpeed="14.74" duration="62.00" routeLength="609.39" waitingTime="0.00" waitingCount="0" stopTime="0.00" timeLoss="21.25" rerouteNo="0" devices="vehroute_58b1a.2 tripinfo_58b1a.2 emissions_58b1a.2 fcd_58b1a.2" vType="Car" speedFactor="1.07" vaporized="">
        <emissions CO_abs="3756.089039" CO2_abs="224609.526390" HC_abs="22.423655" PMx_abs="4.279006" NOx_abs="94.239989" fuel_abs="96.549768" electricity_abs="0"/>
    </tripinfo>
    <tripinfo id="15e1.0" depart="2.00" departLane="x2c_0" departPos="5.10" departSpeed="0.00" departDelay="2.00" arrival="97.00" arrivalLane="c14a_0" arrivalPos="0.20" arrivalSpeed="5.61" duration="95.00" routeLength="660.09" waitingTime="14.00" waitingCount="2" stopTime="0.00" timeLoss="35.57" rerouteNo="0" devices="vehroute_15e1.0 tripinfo_15e1.0 emissions_15e1.0 fcd_15e1.0" vType="Taxi" speedFactor="0.84" vaporized="">
        <emissions CO_abs="5833.013930" CO2_abs="253681.555639" HC_abs="32.547729" PMx_abs="4.988170" NOx_abs="108.126185" fuel_abs="109.047611" electricity_abs="0"/>
    </tripinfo>
    <tripinfo id="a23d1a.0" depart="1.00" departLane="d6_0" departPos="2.60" departSpeed="0.00" departDelay="1.00" arrival="97.00" arrivalLane="g6_0" arrivalPos="19.24" arrivalSpeed="12.31" duration="96.00" routeLength="740.81" waitingTime="15.00" waitingCount="1" stopTime="0.00" timeLoss="39.13" rerouteNo="0" devices="vehroute_a23d1a.0 tripinfo_a23d1a.0 emissions_a23d1a.0 fcd_a23d1a.0" vType="Moto" speedFactor="0.96" vaporized="">
        <emissions CO_abs="10474.015228" CO2_abs="268277.173283" HC_abs="46.072575" PMx_abs="15.267068" NOx_abs="58.574294" fuel_abs="115.335215" electricity_abs="0"/>
    </tripinfo>
    <tripinfo id="a23e1a.0" depart="3.00" departLane="d6_0" departPos="5.10" departSpeed="0.00" departDelay="3.00" arrival="97.00" arrivalLane="g6_1" arrivalPos="19.24" arrivalSpeed="12.34" duration="94.00" routeLength="738.31" waitingTime="11.00" waitingCount="2" stopTime="0.00" timeLoss="40.31" rerouteNo="0" devices="vehroute_a23e1a.0 tripinfo_a23e1a.0 emissions_a23e1a.0 fcd_a23e1a.0" vType="Taxi" speedFactor="1.01" vaporized="">
        <emissions CO_abs="5816.271748" CO2_abs="290920.511527" HC_abs="33.395279" PMx_abs="5.759690" NOx_abs="123.548970" fuel_abs="125.054423" electricity_abs="0"/>
    </tripinfo>
    <tripinfo id="a37b1a.1" depart="33.00" departLane="f7_0" departPos="5.10" departSpeed="0.00" departDelay="1.64" arrival="97.00" arrivalLane="f13_0" arrivalPos="31.58" arrivalSpeed="6.82" duration="64.00" routeLength="367.23" waitingTime="0.00" waitingCount="0" stopTime="0.00" timeLoss="10.79" rerouteNo="0" devices="vehroute_a37b1a.1 tripinfo_a37b1a.1 emissions_a37b1a.1 fcd_a37b1a.1" vType="Car" speedFactor="0.50" vaporized="">
        <emissions CO_abs="2976.282929" CO2_abs="114085.595219" HC_abs="16.173842" PMx_abs="1.964791" NOx_abs="47.267012" fuel_abs="49.041541" electricity_abs="0"/>
    </tripinfo>
    <tripinfo id="a23b1c.0" depart="0.00" departLane="d6_0" departPos="5.10" departSpeed="0.00" departDelay="0.00" arrival="99.00" arrivalLane="g6_0" arrivalPos="19.24" arrivalSpeed="9.34" duration="99.00" routeLength="738.31" waitingTime="3.00" waitingCount="2" stopTime="0.00" timeLoss="21.02" rerouteNo="0" devices="vehroute_a23b1c.0 tripinfo_a23b1c.0 emissions_a23b1c.0 fcd_a23b1c.0" vType="Car" speedFactor="0.69" vaporized="">
        <emissions CO_abs="5019.265597" CO2_abs="247610.105128" HC_abs="28.636900" PMx_abs="4.464168" NOx_abs="103.234596" fuel_abs="106.437744" electricity_abs="0"/>
    </tripinfo>
    <tripinfo id="58b1a.1" depart="24.00" departLane="d3_0" departPos="5.10" departSpeed="0.00" departDelay="10.20" arrival="101.00" arrivalLane="j7_0" arrivalPos="1.40" arrivalSpeed="7.00" duration="77.00" routeLength="609.39" waitingTime="0.00" waitingCount="0" stopTime="0.00" timeLoss="12.77" rerouteNo="0" devices="vehroute_58b1a.1 tripinfo_58b1a.1 emissions_58b1a.1 fcd_58b1a.1" vType="Car" speedFactor="0.64" vaporized="">
        <emissions CO_abs="3890.135782" CO2_abs="199918.940371" HC_abs="22.319238" PMx_abs="3.504194" NOx_abs="82.453140" fuel_abs="85.937238" electricity_abs="0"/>
    </tripinfo>
    <tripinfo id="a33d1a.0" depart="0.00" departLane="d7_0" departPos="2.60" departSpeed="0.00" departDelay="0.00" arrival="107.00" arrivalLane="e4b_0" arrivalPos="73.11" arrivalSpeed="9.84" duration="107.00" routeLength="902.89" waitingTime="0.00" waitingCount="0" stopTime="0.00" timeLoss="15.93" rerouteNo="0" devices="vehroute_a33d1a.0 tripinfo_a33d1a.0 emissions_a33d1a.0 fcd_a33d1a.0" vType="Moto" speedFactor="0.72" vaporized="">
        <emissions CO_abs="7257.140664" CO2_abs="234006.650871" HC_abs="33.011031" PMx_abs="10.968361" NOx_abs="52.894751" fuel_abs="100.601236" electricity_abs="0"/>
    </tripinfo>
    <tripinfo id="51b1a.0" depart="4.00" departLane="g10_0" departPos="5.10" departSpeed="0.00" departDelay="4.00" arrival="107.00" arrivalLane="c15_1" arrivalPos="105.53" arrivalSpeed="13.93" duration="103.00" routeLength="690.83" waitingTime="22.00" waitingCount="2" stopTime="0.00" timeLoss="54.85" rerouteNo="0" devices="vehroute_51b1a.0 tripinfo_51b1a.0 emissions_51b1a.0 fcd_51b1a.0" vType="Car" speedFactor="1.06" vaporized="">
        <emissions CO_abs="6717.665645" CO2_abs="293393.748316" HC_abs="37.558099" PMx_abs="6.065118" NOx_abs="126.591119" fuel_abs="126.117861" electricity_abs="0"/>
    </tripinfo>
    <tripinfo id="51e1b.0" depart="2.00" departLane="g9_0" departPos="5.10" departSpeed="0.00" departDelay="2.00" arrival="112.00" arrivalLane="c15_1" arrivalPos="105.53" arrivalSpeed="11.85" duration="110.00" routeLength="825.33" waitingTime="23.00" waitingCount="4" stopTime="0.00" timeLoss="61.89" rerouteNo="0" devices="vehroute_51e1b.0 tripinfo_51e1b.0 emissions_51e1b.0 fcd_51e1b.0" vType="Taxi" speedFactor="1.26" vaporized="">
        <emissions CO_abs="8090.865756" CO2_abs="377312.144540" HC_abs="45.874805" PMx_abs="8.035184" NOx_abs="163.979910" fuel_abs="162.190123" electricity_abs="0"/>
    </tripinfo>
    <tripinfo id="a33b1a.2" depart="53.00" departLane="d3_0" departPos="5.10" departSpeed="0.00" departDelay="0.73" arrival="113.00" arrivalLane="e2a_0" arrivalPos="40.79" arrivalSpeed="13.65" duration="60.00" routeLength="475.89" waitingTime="0.00" waitingCount="0" stopTime="0.00" timeLoss="24.15" rerouteNo="0" devices="vehroute_a33b1a.2 tripinfo_a33b1a.2 emissions_a33b1a.2 fcd_a33b1a.2" vType="Car" speedFactor="0.99" vaporized="">
        <emissions CO_abs="4317.188834" CO2_abs="230179.613745" HC_abs="25.148106" PMx_abs="4.676856" NOx_abs="99.188467" fuel_abs="98.943985" electricity_abs="0"/>
    </tripinfo>
    <tripinfo id="a28b1a.1" depart="41.00" departLane="b4_0" departPos="0.20" departSpeed="0.00" departDelay="0.41" arrival="114.00" arrivalLane="e4_1" arrivalPos="108.49" arrivalSpeed="12.81" duration="73.00" routeLength="419.77" waitingTime="26.00" waitingCount="2" stopTime="0.00" timeLoss="45.54" rerouteNo="0" devices="vehroute_a28b1a.1 tripinfo_a28b1a.1 emissions_a28b1a.1 fcd_a28b1a.1" vType="Car" speedFactor="1.06" vaporized="">
        <emissions CO_abs="6350.445931" CO2_abs="233737.091769" HC_abs="34.490938" PMx_abs="5.015263" NOx_abs="101.887022" fuel_abs="100.474520" electricity_abs="0"/>
    </tripinfo>
    <tripinfo id="32b1a.0" depart="8.00" departLane="b4_0" departPos="0.20" departSpeed="0.00" departDelay="8.00" arrival="119.00" arrivalLane="h5a_0" arrivalPos="50.59" arrivalSpeed="9.44" duration="111.00" routeLength="796.83" waitingTime="22.00" waitingCount="1" stopTime="0.00" timeLoss="38.75" rerouteNo="0" devices="vehroute_32b1a.0 tripinfo_32b1a.0 emissions_32b1a.0 fcd_32b1a.0" vType="Car" speedFactor="0.78" vaporized="">
        <emissions CO_abs="7337.604883" CO2_abs="312181.531097" HC_abs="40.755631" PMx_abs="6.010378" NOx_abs="131.856323" fuel_abs="134.194795" electricity_abs="0"/>
    </tripinfo>
    <tripinfo id="a23b1a.2" depart="60.00" departLane="d3_0" departPos="5.10" departSpeed="0.00" departDelay="0.00" arrival="121.00" arrivalLane="g3_0" arrivalPos="0.20" arrivalSpeed="11.18" duration="61.00" routeLength="420.40" waitingTime="5.00" waitingCount="1" stopTime="0.00" timeLoss="23.29" rerouteNo="0" devices="vehroute_a23b1a.2 tripinfo_a23b1a.2 emissions_a23b1a.2 fcd_a23b1a.2" vType="Car" speedFactor="0.83" vaporized="">
        <emissions CO_abs="3549.311372" CO2_abs="168111.128514" HC_abs="20.143961" PMx_abs="3.343118" NOx_abs="72.048844" fuel_abs="72.263944" electricity_abs="0"/>
    </tripinfo>
    <tripinfo id="38b1a.0" depart="2.00" departLane="f6a_0" departPos="5.10" departSpeed="0.00" departDelay="2.00" arrival="124.00" arrivalLane="k3a_0" arrivalPos="0.20" arrivalSpeed="5.18" duration="122.00" routeLength="1241.66" waitingTime="4.00" waitingCount="1" stopTime="0.00" timeLoss="46.46" rerouteNo="0" devices="vehroute_38b1a.0 tripinfo_38b1a.0 emissions_38b1a.0 fcd_38b1a.0" vType="Car" speedFactor="1.20" vaporized="">
        <emissions CO_abs="6752.448612" CO2_abs="411707.486157" HC_abs="40.584249" PMx_abs="8.123320" NOx_abs="173.548851" fuel_abs="176.974528" electricity_abs="0"/>
    </tripinfo>
    <tripinfo id="58b1a.4" depart="56.00" departLane="d3_0" departPos="5.10" departSpeed="0.00" departDelay="0.80" arrival="124.00" arrivalLane="j7_1" arrivalPos="1.40" arrivalSpeed="13.43" duration="68.00" routeLength="609.39" waitingTime="0.00" waitingCount="0" stopTime="0.00" timeLoss="27.61" rerouteNo="0" devices="vehroute_58b1a.4 tripinfo_58b1a.4 emissions_58b1a.4 fcd_58b1a.4" vType="Car" speedFactor="1.07" vaporized="">
        <emissions CO_abs="4339.782159" CO2_abs="230814.146959" HC_abs="25.268484" PMx_abs="4.713378" NOx_abs="99.174318" fuel_abs="99.216759" electricity_abs="0"/>
    </tripinfo>
    <tripinfo id="58b1a.5" depart="69.00" departLane="d3_0" departPos="5.10" departSpeed="0.00" departDelay="0.00" arrival="125.00" arrivalLane="j7_1" arrivalPos="1.40" arrivalSpeed="15.75" duration="56.00" routeLength="609.39" waitingTime="0.00" waitingCount="0" stopTime="0.00" timeLoss="18.68" rerouteNo="0" devices="vehroute_58b1a.5 tripinfo_58b1a.5 emissions_58b1a.5 fcd_58b1a.5" vType="Car" speedFactor="1.15" vaporized="">
        <emissions CO_abs="4010.686764" CO2_abs="236662.479510" HC_abs="23.958115" PMx_abs="4.933818" NOx_abs="101.878572" fuel_abs="101.730218" electricity_abs="0"/>
    </tripinfo>
    <tripinfo id="a33e1a.0" depart="2.00" departLane="d7_0" departPos="5.10" departSpeed="0.00" departDelay="2.00" arrival="127.00" arrivalLane="e4b_0" arrivalPos="73.11" arrivalSpeed="7.99" duration="125.00" routeLength="900.39" waitingTime="0.00" waitingCount="0" stopTime="0.00" timeLoss="19.17" rerouteNo="0" devices="vehroute_a33e1a.0 tripinfo_a33e1a.0 emissions_a33e1a.0 fcd_a33e1a.0" vType="Taxi" speedFactor="0.61" vaporized="">
        <emissions CO_abs="5196.627852" CO2_abs="251140.390904" HC_abs="29.488114" PMx_abs="4.360632" NOx_abs="103.847535" fuel_abs="107.955597" electricity_abs="0"/>
    </tripinfo>
    <tripinfo id="8a1.0" depart="0.00" departLane="y2_0" departPos="13.10" departSpeed="0.00" departDelay="0.00" arrival="131.00" arrivalLane="a18a_0" arrivalPos="59.72" arrivalSpeed="9.25" duration="131.00" routeLength="1175.11" waitingTime="9.00" waitingCount="1" stopTime="0.00" timeLoss="29.41" rerouteNo="0" devices="vehroute_8a1.0 tripinfo_8a1.0 emissions_8a1.0 fcd_8a1.0" vType="Bus" speedFactor="0.85" vaporized="">
        <emissions CO_abs="3005.463782" CO2_abs="2079984.556167" HC_abs="539.408949" PMx_abs="321.335249" NOx_abs="15707.810024" fuel_abs="887.069081" electricity_abs="0"/>
    </tripinfo>
    <tripinfo id="a33b1a.3" depart="79.00" departLane="d3_0" departPos="5.10" departSpeed="0.00" departDelay="0.59" arrival="131.00" arrivalLane="e2a_0" arrivalPos="40.79" arrivalSpeed="10.09" duration="52.00" routeLength="475.89" waitingTime="1.00" waitingCount="1" stopTime="0.00" timeLoss="9.95" rerouteNo="0" devices="vehroute_a33b1a.3 tripinfo_a33b1a.3 emissions_a33b1a.3 fcd_a33b1a.3" vType="Car" speedFactor="0.82" vaporized="">
        <emissions CO_abs="2808.170060" CO2_abs="159064.276889" HC_abs="16.540378" PMx_abs="2.984375" NOx_abs="66.805802" fuel_abs="68.374905" electricity_abs="0"/>
    </tripinfo>
    <tripinfo id="38e1a.0" depart="0.00" departLane="f5a_0" departPos="5.10" departSpeed="0.00" departDelay="0.00" arrival="136.00" arrivalLane="k4_0" arrivalPos="194.58" arrivalSpeed="12.20" duration="136.00" routeLength="1448.27" waitingTime="9.00" waitingCount="1" stopTime="0.00" timeLoss="33.98" rerouteNo="0" devices="vehroute_38e1a.0 tripinfo_38e1a.0 emissions_38e1a.0 fcd_38e1a.0" vType="Taxi" speedFactor="1.03" vaporized="">
        <emissions CO_abs="7527.640493" CO2_abs="473942.249098" HC_abs="45.556089" PMx_abs="9.208897" NOx_abs="199.064084" fuel_abs="203.726435" electricity_abs="0"/>
    </tripinfo>
    <tripinfo id="a23b1a.3" depart="90.00" departLane="d3_0" departPos="5.10" departSpeed="0.00" departDelay="0.00" arrival="136.00" arrivalLane="g3_0" arrivalPos="0.20" arrivalSpeed="12.86" duration="46.00" routeLength="420.40" waitingTime="0.00" waitingCount="0" stopTime="0.00" timeLoss="16.53" rerouteNo="0" devices="vehroute_a23b1a.3 tripinfo_a23b1a.3 emissions_a23b1a.3 fcd_a23b1a.3" vType="Car" speedFactor="1.06" vaporized="">
        <emissions CO_abs="2961.032610" CO2_abs="168302.430174" HC_abs="17.494668" PMx_abs="3.362733" NOx_abs="71.986017" fuel_abs="72.345671" electricity_abs="0"/>
    </tripinfo>
    <tripinfo id="8b1c.0" depart="1.00" departLane="y2_0" departPos="5.10" departSpeed="0.00" departDelay="1.00" arrival="137.00" arrivalLane="a18a_0" arrivalPos="59.72" arrivalSpeed="10.33" duration="136.00" routeLength="1183.11" waitingTime="5.00" waitingCount="3" stopTime="0.00" timeLoss="32.76" rerouteNo="0" devices="vehroute_8b1c.0 tripinfo_8b1c.0 emissions_8b1c.0 fcd_8b1c.0" vType="Car" speedFactor="0.84" vaporized="">
        <emissions CO_abs="6653.338814" CO2_abs="384889.784713" HC_abs="39.345114" PMx_abs="7.011443" NOx_abs="160.082225" fuel_abs="165.447819" electricity_abs="0"/>
    </tripinfo>
    <tripinfo id="0b1a.1" depart="34.00" departLane="i12_0" departPos="5.10" departSpeed="0.00" departDelay="0.83" arrival="137.00" arrivalLane="i5_1" arrivalPos="182.21" arrivalSpeed="6.00" duration="103.00" routeLength="905.52" waitingTime="18.00" waitingCount="1" stopTime="0.00" timeLoss="36.02" rerouteNo="0" devices="vehroute_0b1a.1 tripinfo_0b1a.1 emissions_0b1a.1 fcd_0b1a.1" vType="Car" speedFactor="0.98" vaporized="">
        <emissions CO_abs="6565.489859" CO2_abs="312879.112270" HC_abs="37.315859" PMx_abs="6.150356" NOx_abs="132.233630" fuel_abs="134.493866" electricity_abs="0"/>
    </tripinfo>
    <tripinfo id="34b1a.0" depart="12.00" departLane="d3_0" departPos="5.10" departSpeed="0.00" departDelay="12.00" arrival="139.00" arrivalLane="c20a_0" arrivalPos="24.41" arrivalSpeed="14.27" duration="127.00" routeLength="1286.42" waitingTime="14.00" waitingCount="1" stopTime="0.00" timeLoss="56.14" rerouteNo="0" devices="vehroute_34b1a.0 tripinfo_34b1a.0 emissions_34b1a.0 fcd_34b1a.0" vType="Car" speedFactor="1.34" vaporized="">
        <emissions CO_abs="8514.984074" CO2_abs="469068.897121" HC_abs="49.925839" PMx_abs="9.632261" NOx_abs="200.033415" fuel_abs="201.631739" electricity_abs="0"/>
    </tripinfo>
    <tripinfo id="59b1.0" depart="0.00" departLane="f6_0" departPos="5.10" departSpeed="0.00" departDelay="0.00" arrival="139.00" arrivalLane="a12_0" arrivalPos="93.18" arrivalSpeed="6.92" duration="139.00" routeLength="1018.45" waitingTime="40.00" waitingCount="2" stopTime="0.00" timeLoss="64.93" rerouteNo="0" devices="vehroute_59b1.0 tripinfo_59b1.0 emissions_59b1.0 fcd_59b1.0" vType="Car" speedFactor="0.97" vaporized="">
        <emissions CO_abs="10017.540363" CO2_abs="405586.067604" HC_abs="55.241939" PMx_abs="8.282606" NOx_abs="173.752162" fuel_abs="174.345556" electricity_abs="0"/>
    </tripinfo>
    <tripinfo id="0b1a.0" depart="0.00" departLane="i12_0" departPos="5.10" departSpeed="0.00" departDelay="0.00" arrival="140.00" arrivalLane="i5_0" arrivalPos="182.21" arrivalSpeed="9.34" duration="140.00" routeLength="905.52" waitingTime="29.00" waitingCount="3" stopTime="0.00" timeLoss="52.03" rerouteNo="0" devices="vehroute_0b1a.0 tripinfo_0b1a.0 emissions_0b1a.0 fcd_0b1a.0" vType="Car" speedFactor="0.75" vaporized="">
        <emissions CO_abs="6898.989810" CO2_abs="294994.408483" HC_abs="38.320049" PMx_abs="5.520835" NOx_abs="123.868819" fuel_abs="126.806896" electricity_abs="0"/>
    </tripinfo>
    <tripinfo id="18b1a.0" depart="2.00" departLane="c5_0" departPos="5.10" departSpeed="0.00" departDelay="2.00" arrival="140.00" arrivalLane="c12a_0" arrivalPos="89.74" arrivalSpeed="12.08" duration="138.00" routeLength="698.34" waitingTime="60.00" waitingCount="2" stopTime="0.00" timeLoss="80.87" rerouteNo="0" devices="vehroute_18b1a.0 tripinfo_18b1a.0 emissions_18b1a.0 fcd_18b1a.0" vType="Car" speedFactor="0.89" vaporized="">
        <emissions CO_abs="11606.861406" CO2_abs="330094.198913" HC_abs="60.642161" PMx_abs="7.076934" NOx_abs="143.848242" fuel_abs="141.896974" electricity_abs="0"/>
    </tripinfo>
    <tripinfo id="0d1.0" depart="2.00" departLane="i16a_0" departPos="2.60" departSpeed="0.00" departDelay="2.00" arrival="141.00" arrivalLane="i5_1" arrivalPos="182.21" arrivalSpeed="10.21" duration="139.00" routeLength="1353.88" waitingTime="9.00" waitingCount="1" stopTime="0.00" timeLoss="40.74" rerouteNo="0" devices="vehroute_0d1.0 tripinfo_0d1.0 emissions_0d1.0 fcd_0d1.0" vType="Moto" speedFactor="0.98" vaporized="">
        <emissions CO_abs="15804.907875" CO2_abs="470245.349168" HC_abs="72.471409" PMx_abs="24.933390" NOx_abs="101.679447" fuel_abs="202.162666" electricity_abs="0"/>
    </tripinfo>
    <tripinfo id="58b1a.6" depart="84.00" departLane="d3_0" departPos="5.10" departSpeed="0.00" departDelay="1.20" arrival="141.00" arrivalLane="j7_1" arrivalPos="1.40" arrivalSpeed="11.09" duration="57.00" routeLength="609.39" waitingTime="0.00" waitingCount="0" stopTime="0.00" timeLoss="9.83" rerouteNo="0" devices="vehroute_58b1a.6 tripinfo_58b1a.6 emissions_58b1a.6 fcd_58b1a.6" vType="Car" speedFactor="0.89" vaporized="">